LAMMPS data file via DiffCG

1000 atoms
1 atom types

0.000000 3.089900 xlo xhi
0.000000 3.089900 ylo yhi
0.000000 3.089900 zlo zhi

Masses

1 18.0153

Atoms # full

1 1 1 0.0000 2.908020 2.991640 1.785070
2 1 1 0.0000 2.786070 2.448700 2.629690
3 1 1 0.0000 0.775476 2.169000 2.006960
4 1 1 0.0000 2.053820 0.073770 2.547800
5 1 1 0.0000 0.256767 1.589810 0.885725
6 1 1 0.0000 1.835950 3.043650 2.323420
7 1 1 0.0000 1.745190 1.807330 1.634360
8 1 1 0.0000 1.482030 1.785730 0.963526
9 1 1 0.0000 1.425690 1.781970 1.617410
10 1 1 0.0000 1.025200 2.850850 0.134770
11 1 1 0.0000 0.297804 0.241781 2.385500
12 1 1 0.0000 2.642320 0.406453 2.556690
13 1 1 0.0000 2.462220 0.041410 2.568110
14 1 1 0.0000 0.920923 2.056760 2.933040
15 1 1 0.0000 2.183840 1.148870 1.499610
16 1 1 0.0000 2.745420 2.900980 1.170550
17 1 1 0.0000 1.262880 1.514980 2.897570
18 1 1 0.0000 0.492067 1.143800 1.759150
19 1 1 0.0000 2.052720 2.679800 1.297850
20 1 1 0.0000 0.305661 1.980070 0.756261
21 1 1 0.0000 1.843710 1.316010 1.034940
22 1 1 0.0000 2.408810 2.778780 0.054750
23 1 1 0.0000 2.491970 0.970277 0.597942
24 1 1 0.0000 1.594840 2.323920 0.656989
25 1 1 0.0000 2.378890 2.898640 1.812990
26 1 1 0.0000 0.695225 3.069500 2.564040
27 1 1 0.0000 2.339530 0.708773 1.726550
28 1 1 0.0000 0.490357 1.559970 1.447680
29 1 1 0.0000 1.452370 0.700057 2.909980
30 1 1 0.0000 1.408960 1.507950 1.017550
31 1 1 0.0000 0.687800 0.940174 0.111730
32 1 1 0.0000 0.112700 3.063650 0.020190
33 1 1 0.0000 2.065590 0.331799 1.338230
34 1 1 0.0000 0.460586 1.841330 1.669290
35 1 1 0.0000 2.357370 2.737780 1.121330
36 1 1 0.0000 0.123980 2.425830 2.537120
37 1 1 0.0000 1.476400 1.281170 2.918450
38 1 1 0.0000 1.019620 0.191535 1.014260
39 1 1 0.0000 1.314110 2.273990 2.470680
40 1 1 0.0000 0.125890 0.727687 0.847223
41 1 1 0.0000 1.888070 0.629748 2.082120
42 1 1 0.0000 0.908305 1.020900 2.037140
43 1 1 0.0000 0.210292 2.961550 1.722700
44 1 1 0.0000 0.913880 2.060320 2.378620
45 1 1 0.0000 1.662570 1.173870 1.238330
46 1 1 0.0000 0.121030 2.554700 1.624510
47 1 1 0.0000 2.816430 1.205100 2.183810
48 1 1 0.0000 0.634433 0.601353 0.650822
49 1 1 0.0000 2.417090 1.206540 2.946480
50 1 1 0.0000 2.596360 2.475550 0.847525
51 1 1 0.0000 0.794654 0.644029 1.632820
52 1 1 0.0000 0.676396 2.546330 0.742874
53 1 1 0.0000 0.338425 1.534270 1.704130
54 1 1 0.0000 2.823620 2.232050 0.491230
55 1 1 0.0000 0.840326 1.464510 0.834629
56 1 1 0.0000 2.686000 2.838050 2.016630
57 1 1 0.0000 1.325910 0.457084 2.823430
58 1 1 0.0000 1.168080 0.690604 1.509860
59 1 1 0.0000 3.005480 2.332520 2.935640
60 1 1 0.0000 0.422938 2.886270 0.105260
61 1 1 0.0000 1.039460 2.777370 1.140840
62 1 1 0.0000 1.237590 1.655760 0.150030
63 1 1 0.0000 2.867840 0.821885 0.194386
64 1 1 0.0000 2.554130 2.900880 0.901140
65 1 1 0.0000 0.979219 0.050850 3.088700
66 1 1 0.0000 2.799410 0.119860 1.049050
67 1 1 0.0000 0.686572 2.840520 1.628340
68 1 1 0.0000 1.490710 2.969670 2.064800
69 1 1 0.0000 0.715241 0.827084 0.497941
70 1 1 0.0000 0.706188 0.340532 1.912380
71 1 1 0.0000 1.307890 0.221857 2.447120
72 1 1 0.0000 2.031810 1.421330 0.095810
73 1 1 0.0000 2.349700 2.391250 3.026290
74 1 1 0.0000 2.275570 2.408400 0.354827
75 1 1 0.0000 0.606034 2.532550 1.783950
76 1 1 0.0000 2.825670 1.629240 0.508608
77 1 1 0.0000 1.986410 2.608390 1.716970
78 1 1 0.0000 2.953640 0.635504 0.549279
79 1 1 0.0000 3.061410 1.705510 1.983780
80 1 1 0.0000 0.259203 2.281670 1.077030
81 1 1 0.0000 0.945933 0.849610 0.799434
82 1 1 0.0000 0.126600 0.845535 2.035830
83 1 1 0.0000 2.954330 1.551690 3.054900
84 1 1 0.0000 1.969450 1.226480 2.858540
85 1 1 0.0000 2.489620 2.581470 0.281404
86 1 1 0.0000 2.178810 1.583320 1.416900
87 1 1 0.0000 1.661540 2.032880 2.686590
88 1 1 0.0000 0.029760 1.020130 2.721560
89 1 1 0.0000 2.177340 0.567518 3.086820
90 1 1 0.0000 0.880513 1.888740 1.402890
91 1 1 0.0000 1.940980 0.272709 0.070520
92 1 1 0.0000 0.282681 2.388980 0.779886
93 1 1 0.0000 1.190530 1.850430 0.558720
94 1 1 0.0000 1.308160 0.980263 1.067160
95 1 1 0.0000 1.715190 2.078510 0.053570
96 1 1 0.0000 0.232109 1.316740 0.392670
97 1 1 0.0000 2.579920 1.715620 2.279620
98 1 1 0.0000 0.329084 0.949099 0.920766
99 1 1 0.0000 1.526370 2.800810 0.116350
100 1 1 0.0000 2.496400 1.509120 2.993390
101 1 1 0.0000 1.284210 0.235738 1.162310
102 1 1 0.0000 1.028090 2.512860 1.978910
103 1 1 0.0000 0.045990 0.913017 0.161234
104 1 1 0.0000 1.543830 2.070380 2.419840
105 1 1 0.0000 0.288963 1.457040 2.746100
106 1 1 0.0000 0.846387 1.030970 1.691480
107 1 1 0.0000 2.326940 0.395228 0.141880
108 1 1 0.0000 1.504480 1.076290 2.741740
109 1 1 0.0000 1.188610 1.806830 1.424920
110 1 1 0.0000 1.915850 1.481200 1.649920
111 1 1 0.0000 2.520180 1.982130 1.646370
112 1 1 0.0000 2.580120 2.443380 2.394170
113 1 1 0.0000 2.370950 2.653760 0.556094
114 1 1 0.0000 2.636470 1.507670 0.675172
115 1 1 0.0000 1.485780 1.444480 1.768190
116 1 1 0.0000 0.204340 2.316180 0.519173
117 1 1 0.0000 1.289990 2.146340 1.902880
118 1 1 0.0000 1.666640 0.465123 1.655470
119 1 1 0.0000 0.357297 2.018390 2.601750
120 1 1 0.0000 2.692850 1.289220 2.494410
121 1 1 0.0000 0.416739 1.781920 1.953970
122 1 1 0.0000 0.250588 2.694900 2.447660
123 1 1 0.0000 0.204175 3.029260 2.570750
124 1 1 0.0000 1.404750 1.007350 0.394608
125 1 1 0.0000 1.385000 2.427040 1.322000
126 1 1 0.0000 2.543960 0.618442 2.682040
127 1 1 0.0000 0.724808 1.475320 2.543500
128 1 1 0.0000 2.805030 0.199757 2.646540
129 1 1 0.0000 1.254120 2.007670 2.398010
130 1 1 0.0000 0.536483 0.191103 1.677210
131 1 1 0.0000 1.731730 2.578050 1.625660
132 1 1 0.0000 1.892040 1.895720 1.174570
133 1 1 0.0000 1.999810 0.482872 0.820112
134 1 1 0.0000 2.010010 2.737460 2.025080
135 1 1 0.0000 1.944780 2.229750 1.953420
136 1 1 0.0000 2.679880 1.258500 1.920490
137 1 1 0.0000 1.223120 1.324950 1.455070
138 1 1 0.0000 2.561220 0.766632 1.181510
139 1 1 0.0000 2.112610 1.243160 1.994990
140 1 1 0.0000 0.845965 1.314790 2.935010
141 1 1 0.0000 1.301430 0.712991 2.684320
142 1 1 0.0000 0.372634 0.512097 0.772705
143 1 1 0.0000 0.018910 1.637180 1.293910
144 1 1 0.0000 3.023130 0.216775 1.646160
145 1 1 0.0000 1.439340 1.672580 3.042880
146 1 1 0.0000 2.911120 0.947675 2.426400
147 1 1 0.0000 2.767940 1.397140 1.244820
148 1 1 0.0000 2.575460 2.923660 2.891090
149 1 1 0.0000 0.722687 1.092050 2.520000
150 1 1 0.0000 1.699820 1.238520 0.213470
151 1 1 0.0000 1.454590 2.242180 0.159106
152 1 1 0.0000 0.740322 2.250230 2.878640
153 1 1 0.0000 0.427405 2.075320 0.377374
154 1 1 0.0000 1.378350 2.511880 2.758800
155 1 1 0.0000 2.147440 0.451844 2.468460
156 1 1 0.0000 2.964810 1.976070 1.194760
157 1 1 0.0000 1.776900 0.693542 2.771370
158 1 1 0.0000 0.615581 0.338575 2.576570
159 1 1 0.0000 0.461527 1.077230 1.359680
160 1 1 0.0000 2.896660 0.261817 1.906830
161 1 1 0.0000 0.759111 1.781560 2.549920
162 1 1 0.0000 2.717880 1.020730 1.558260
163 1 1 0.0000 0.860307 2.874750 0.723227
164 1 1 0.0000 0.145450 0.450495 0.464580
165 1 1 0.0000 2.351630 0.042610 0.973619
166 1 1 0.0000 1.584970 0.901308 1.405960
167 1 1 0.0000 0.206106 0.898681 2.427030
168 1 1 0.0000 0.673740 0.758318 0.862643
169 1 1 0.0000 1.124870 1.511880 1.616070
170 1 1 0.0000 1.365030 2.899690 0.653291
171 1 1 0.0000 0.574678 2.566530 2.981360
172 1 1 0.0000 2.488560 0.593818 0.272458
173 1 1 0.0000 0.604168 1.531120 2.840560
174 1 1 0.0000 0.657830 2.654660 0.206340
175 1 1 0.0000 1.901980 0.576370 1.235190
176 1 1 0.0000 0.313159 0.624909 2.736110
177 1 1 0.0000 0.438309 0.820232 2.033080
178 1 1 0.0000 2.688430 1.567120 1.023730
179 1 1 0.0000 1.156600 1.138740 2.220000
180 1 1 0.0000 1.190790 0.358459 0.883756
181 1 1 0.0000 0.997044 0.740801 0.449045
182 1 1 0.0000 1.465930 1.613440 1.374390
183 1 1 0.0000 0.739544 1.104650 0.634003
184 1 1 0.0000 0.651199 1.834780 2.817060
185 1 1 0.0000 1.511670 0.980048 2.080130
186 1 1 0.0000 1.186440 1.575030 0.587537
187 1 1 0.0000 3.026100 0.011330 0.515843
188 1 1 0.0000 0.322687 2.257760 1.425860
189 1 1 0.0000 1.724340 2.279530 2.589870
190 1 1 0.0000 1.644750 2.438330 1.413540
191 1 1 0.0000 0.630857 0.970683 1.128760
192 1 1 0.0000 0.773968 2.115150 0.096430
193 1 1 0.0000 1.330580 2.004540 0.341474
194 1 1 0.0000 2.280430 1.609910 0.846696
195 1 1 0.0000 1.407160 2.731850 2.171440
196 1 1 0.0000 0.731775 0.793399 2.838790
197 1 1 0.0000 1.317810 2.529160 1.968780
198 1 1 0.0000 1.893870 0.138370 0.741805
199 1 1 0.0000 0.808795 2.719590 1.854390
200 1 1 0.0000 3.037500 2.593940 2.852140
201 1 1 0.0000 0.772200 1.302320 1.712520
202 1 1 0.0000 2.766390 1.378950 1.700930
203 1 1 0.0000 1.376060 1.066450 1.470980
204 1 1 0.0000 2.174210 1.054530 2.196160
205 1 1 0.0000 0.261589 0.682996 1.298800
206 1 1 0.0000 0.405662 2.620340 2.183760
207 1 1 0.0000 1.587050 0.333236 2.173910
208 1 1 0.0000 3.022120 1.420820 1.127580
209 1 1 0.0000 2.839590 2.217890 2.466290
210 1 1 0.0000 0.307943 0.411436 1.139250
211 1 1 0.0000 2.981760 0.654512 1.010070
212 1 1 0.0000 0.675737 0.807946 2.422310
213 1 1 0.0000 1.933490 1.009060 2.580160
214 1 1 0.0000 0.265924 2.717930 1.039800
215 1 1 0.0000 1.486070 2.143910 2.998920
216 1 1 0.0000 2.710090 1.655140 2.919890
217 1 1 0.0000 2.600270 2.134140 2.513050
218 1 1 0.0000 0.510328 2.061750 2.845620
219 1 1 0.0000 1.201410 2.077830 0.763328
220 1 1 0.0000 2.063070 1.804800 1.721780
221 1 1 0.0000 1.461840 2.206120 1.147660
222 1 1 0.0000 0.564922 0.133490 2.351560
223 1 1 0.0000 1.982990 2.212080 2.254090
224 1 1 0.0000 1.690330 2.965840 3.024210
225 1 1 0.0000 1.773210 0.441577 1.047330
226 1 1 0.0000 1.520570 0.347205 0.346537
227 1 1 0.0000 2.150620 3.046150 2.311620
228 1 1 0.0000 2.729810 0.481738 1.343680
229 1 1 0.0000 1.655250 0.437347 0.050160
230 1 1 0.0000 1.123960 3.069060 0.322229
231 1 1 0.0000 0.427045 2.995380 0.638956
232 1 1 0.0000 1.417670 3.037290 3.054830
233 1 1 0.0000 2.884760 2.015030 2.949810
234 1 1 0.0000 2.488270 1.205850 2.110730
235 1 1 0.0000 0.396106 2.627330 0.748680
236 1 1 0.0000 2.304970 1.408210 2.154530
237 1 1 0.0000 0.643495 2.943910 0.874141
238 1 1 0.0000 1.989770 2.117670 2.570870
239 1 1 0.0000 2.824940 1.688660 1.596680
240 1 1 0.0000 1.007320 0.992233 0.566272
241 1 1 0.0000 2.501610 2.488890 1.753930
242 1 1 0.0000 2.231230 2.162880 1.595980
243 1 1 0.0000 2.079160 0.737292 1.112100
244 1 1 0.0000 0.302625 1.577930 3.078470
245 1 1 0.0000 1.754920 0.998712 1.968700
246 1 1 0.0000 0.535213 2.748970 2.538640
247 1 1 0.0000 0.124680 2.152350 2.486560
248 1 1 0.0000 2.833860 2.361840 0.065290
249 1 1 0.0000 2.385400 2.899800 0.674900
250 1 1 0.0000 1.861190 1.005670 1.234300
251 1 1 0.0000 2.724250 3.012930 2.703060
252 1 1 0.0000 1.946210 0.036410 2.792530
253 1 1 0.0000 1.562600 2.486810 2.122870
254 1 1 0.0000 0.374554 0.696985 0.993262
255 1 1 0.0000 1.581540 2.641310 0.430943
256 1 1 0.0000 0.576835 2.348120 2.032190
257 1 1 0.0000 2.856930 2.602090 1.584000
258 1 1 0.0000 0.641125 0.922924 1.861450
259 1 1 0.0000 2.562700 0.016080 1.162010
260 1 1 0.0000 2.646390 1.510890 1.478520
261 1 1 0.0000 0.242533 0.977871 3.079790
262 1 1 0.0000 1.277130 0.064090 2.062340
263 1 1 0.0000 2.137100 0.674479 0.448189
264 1 1 0.0000 2.718190 1.888250 0.741267
265 1 1 0.0000 0.023860 2.020500 0.300364
266 1 1 0.0000 1.914360 1.798420 2.877540
267 1 1 0.0000 0.240802 1.949170 1.265850
268 1 1 0.0000 2.640540 1.436700 2.246830
269 1 1 0.0000 1.932850 0.393623 0.387808
270 1 1 0.0000 1.049980 0.424130 1.731510
271 1 1 0.0000 1.734300 1.877020 0.917055
272 1 1 0.0000 0.098520 1.734140 1.716410
273 1 1 0.0000 1.928060 0.696779 2.516350
274 1 1 0.0000 2.384200 0.434668 0.579799
275 1 1 0.0000 2.751880 2.901900 0.570227
276 1 1 0.0000 2.231740 0.892985 0.259314
277 1 1 0.0000 2.642530 1.052290 2.758330
278 1 1 0.0000 0.316673 0.626284 0.360938
279 1 1 0.0000 1.967280 1.947940 0.100420
280 1 1 0.0000 2.260250 1.221470 1.753760
281 1 1 0.0000 1.002320 1.803020 0.779731
282 1 1 0.0000 0.047460 2.972060 2.841470
283 1 1 0.0000 2.162290 1.891140 2.941860
284 1 1 0.0000 0.406322 2.439140 2.424470
285 1 1 0.0000 2.938150 0.804090 1.210270
286 1 1 0.0000 0.255600 2.751880 2.766210
287 1 1 0.0000 0.812462 1.970610 0.344300
288 1 1 0.0000 2.521950 1.370370 0.439495
289 1 1 0.0000 0.643017 2.921430 1.168490
290 1 1 0.0000 0.706197 1.690820 1.265820
291 1 1 0.0000 2.637600 2.393680 0.408507
292 1 1 0.0000 2.097520 1.171900 1.242150
293 1 1 0.0000 2.878210 2.965170 2.934170
294 1 1 0.0000 1.148490 0.600203 2.943410
295 1 1 0.0000 1.929620 0.946216 0.978880
296 1 1 0.0000 0.759526 2.196440 1.574700
297 1 1 0.0000 2.025940 2.210950 0.097000
298 1 1 0.0000 2.165750 0.254552 0.891171
299 1 1 0.0000 1.019940 1.530290 0.370951
300 1 1 0.0000 2.514140 0.104020 2.838370
301 1 1 0.0000 1.537050 0.548522 0.996179
302 1 1 0.0000 2.701130 2.070140 1.207600
303 1 1 0.0000 3.061130 1.316200 2.093910
304 1 1 0.0000 0.241691 1.813850 0.521675
305 1 1 0.0000 1.639260 0.054150 1.897820
306 1 1 0.0000 1.530800 0.104330 2.530240
307 1 1 0.0000 3.023020 1.801070 0.534300
308 1 1 0.0000 1.943290 0.255456 1.932180
309 1 1 0.0000 1.551510 0.158144 0.722015
310 1 1 0.0000 0.826844 1.797580 3.030090
311 1 1 0.0000 2.707380 0.950057 2.204490
312 1 1 0.0000 1.036380 2.629280 0.348329
313 1 1 0.0000 2.340890 0.808732 2.189720
314 1 1 0.0000 0.613468 0.693505 1.138460
315 1 1 0.0000 1.792670 2.664480 1.324010
316 1 1 0.0000 0.239948 1.032640 0.633286
317 1 1 0.0000 0.120160 0.418884 0.817126
318 1 1 0.0000 1.094000 2.323260 2.318290
319 1 1 0.0000 3.057090 1.184430 1.860120
320 1 1 0.0000 2.468380 2.716630 2.479590
321 1 1 0.0000 0.797576 0.203472 0.499228
322 1 1 0.0000 2.125890 1.899020 1.994110
323 1 1 0.0000 0.078570 1.209990 3.060360
324 1 1 0.0000 1.905420 1.771530 0.314486
325 1 1 0.0000 2.299160 1.143620 0.103590
326 1 1 0.0000 1.531090 2.431570 2.406800
327 1 1 0.0000 1.984190 2.226160 1.020280
328 1 1 0.0000 0.402770 0.132660 2.610180
329 1 1 0.0000 2.458210 1.909230 1.041780
330 1 1 0.0000 2.919170 1.125820 3.005370
331 1 1 0.0000 2.022510 0.026170 1.285840
332 1 1 0.0000 0.279381 0.376826 1.959800
333 1 1 0.0000 2.597230 2.474320 1.189620
334 1 1 0.0000 2.111830 0.416835 2.078580
335 1 1 0.0000 2.764830 0.348690 0.300019
336 1 1 0.0000 0.785237 2.679590 1.161830
337 1 1 0.0000 3.061140 2.765730 1.699130
338 1 1 0.0000 2.346080 1.730100 1.668510
339 1 1 0.0000 2.025830 1.517210 2.909490
340 1 1 0.0000 1.996540 2.236670 0.386115
341 1 1 0.0000 0.074920 0.213332 2.193950
342 1 1 0.0000 1.134150 2.327460 1.675600
343 1 1 0.0000 0.563554 1.396610 2.141880
344 1 1 0.0000 2.198880 2.383560 1.008620
345 1 1 0.0000 2.423130 0.445932 2.405250
346 1 1 0.0000 2.600830 0.482415 1.607370
347 1 1 0.0000 2.451950 0.697464 0.603496
348 1 1 0.0000 1.177450 0.221676 2.878530
349 1 1 0.0000 0.384096 0.660429 1.552740
350 1 1 0.0000 2.261600 2.970340 1.225420
351 1 1 0.0000 3.068570 1.026300 0.425451
352 1 1 0.0000 1.232230 2.578290 2.312830
353 1 1 0.0000 0.044030 0.453376 1.098350
354 1 1 0.0000 1.877560 2.341050 0.691429
355 1 1 0.0000 0.379162 0.986214 2.696150
356 1 1 0.0000 1.546640 2.007240 1.444410
357 1 1 0.0000 1.456160 1.804840 2.363800
358 1 1 0.0000 1.030240 2.086080 1.548850
359 1 1 0.0000 3.020870 0.382719 0.120030
360 1 1 0.0000 0.080850 2.163630 1.215870
361 1 1 0.0000 1.515190 2.039680 0.670037
362 1 1 0.0000 1.546140 2.014990 1.721580
363 1 1 0.0000 3.027350 2.393940 1.833110
364 1 1 0.0000 2.964230 0.939544 1.938120
365 1 1 0.0000 2.380340 1.809210 1.295640
366 1 1 0.0000 0.258746 1.356990 2.171930
367 1 1 0.0000 1.952420 2.199920 1.679430
368 1 1 0.0000 1.342690 2.633050 0.233704
369 1 1 0.0000 2.893940 1.120600 0.951511
370 1 1 0.0000 0.379073 2.945750 0.373075
371 1 1 0.0000 2.233870 2.203430 2.438670
372 1 1 0.0000 0.795793 0.073120 0.253930
373 1 1 0.0000 2.132540 0.806961 1.486650
374 1 1 0.0000 2.229260 0.847515 3.068170
375 1 1 0.0000 1.013200 0.789817 1.062590
376 1 1 0.0000 2.683090 1.875690 3.062650
377 1 1 0.0000 0.360298 1.395330 1.136330
378 1 1 0.0000 1.025730 3.065530 0.857263
379 1 1 0.0000 1.455010 1.810500 2.712190
380 1 1 0.0000 1.362030 0.020260 1.292170
381 1 1 0.0000 0.480994 0.660874 3.041020
382 1 1 0.0000 1.491280 1.318280 2.280440
383 1 1 0.0000 2.117610 0.696428 2.281680
384 1 1 0.0000 1.963830 2.469670 2.073900
385 1 1 0.0000 1.690970 0.943951 2.901570
386 1 1 0.0000 0.649438 0.456378 0.392777
387 1 1 0.0000 1.986650 2.806020 2.278850
388 1 1 0.0000 0.630727 0.617996 1.926720
389 1 1 0.0000 1.347510 0.373293 1.550810
390 1 1 0.0000 1.768660 1.172000 3.033840
391 1 1 0.0000 1.616730 2.772930 0.682155
392 1 1 0.0000 2.263530 0.957911 1.167300
393 1 1 0.0000 2.269870 3.033070 0.025940
394 1 1 0.0000 0.675583 0.114950 0.954328
395 1 1 0.0000 2.473380 1.299350 2.631220
396 1 1 0.0000 2.739520 1.925760 1.849530
397 1 1 0.0000 0.663368 2.932200 0.275029
398 1 1 0.0000 1.788730 0.751323 1.786390
399 1 1 0.0000 0.259977 0.369641 2.865950
400 1 1 0.0000 2.753770 0.787961 1.983290
401 1 1 0.0000 2.323400 2.082250 0.074750
402 1 1 0.0000 1.753760 1.573300 1.182290
403 1 1 0.0000 3.073720 1.891540 1.477260
404 1 1 0.0000 2.827030 1.574030 2.563380
405 1 1 0.0000 2.588680 1.690350 2.006810
406 1 1 0.0000 0.174872 0.123300 0.357758
407 1 1 0.0000 2.943940 0.557846 2.785830
408 1 1 0.0000 2.722210 1.870580 2.480840
409 1 1 0.0000 2.417340 2.385320 0.667459
410 1 1 0.0000 0.585319 0.444801 1.013740
411 1 1 0.0000 1.399420 2.168170 2.723560
412 1 1 0.0000 0.286892 1.659060 1.250290
413 1 1 0.0000 1.021350 0.568699 0.800840
414 1 1 0.0000 2.146690 2.711760 0.344633
415 1 1 0.0000 0.473097 3.012120 1.823900
416 1 1 0.0000 0.886906 0.276000 2.755350
417 1 1 0.0000 0.742710 1.170170 0.360287
418 1 1 0.0000 0.556309 0.944135 0.708693
419 1 1 0.0000 1.501110 0.320073 1.910040
420 1 1 0.0000 1.799180 0.101130 1.401540
421 1 1 0.0000 2.614730 0.333666 1.047160
422 1 1 0.0000 0.166103 1.224030 0.863996
423 1 1 0.0000 2.617180 0.181889 2.374810
424 1 1 0.0000 0.590245 0.576033 2.728790
425 1 1 0.0000 2.010820 0.913636 2.854380
426 1 1 0.0000 0.138400 1.243220 1.163860
427 1 1 0.0000 1.381390 1.257370 1.198090
428 1 1 0.0000 1.404830 2.213380 1.562220
429 1 1 0.0000 1.134180 2.497390 1.457140
430 1 1 0.0000 0.383550 2.310470 2.664010
431 1 1 0.0000 2.451840 1.385900 0.148080
432 1 1 0.0000 2.972160 1.741090 0.154110
433 1 1 0.0000 0.207433 2.948220 2.313640
434 1 1 0.0000 1.515380 1.483920 0.618764
435 1 1 0.0000 2.715970 2.696000 0.993936
436 1 1 0.0000 2.181570 2.965540 1.999100
437 1 1 0.0000 3.028430 3.056170 2.206870
438 1 1 0.0000 1.102190 0.914392 1.866070
439 1 1 0.0000 2.626210 2.531480 2.136290
440 1 1 0.0000 2.195770 1.372120 2.728320
441 1 1 0.0000 1.477710 2.632410 1.695030
442 1 1 0.0000 2.311700 2.216920 2.817760
443 1 1 0.0000 2.404250 1.191810 1.029800
444 1 1 0.0000 1.420890 2.041100 0.927836
445 1 1 0.0000 2.938330 1.848390 2.176530
446 1 1 0.0000 1.424280 0.879710 1.816080
447 1 1 0.0000 2.046560 1.493130 0.615528
448 1 1 0.0000 2.995720 0.289151 2.821500
449 1 1 0.0000 1.565060 0.209699 1.535770
450 1 1 0.0000 0.418656 2.951330 2.921710
451 1 1 0.0000 0.864196 1.007480 1.282690
452 1 1 0.0000 0.412764 2.423260 0.081170
453 1 1 0.0000 2.165900 2.537690 0.113320
454 1 1 0.0000 1.106620 1.653270 2.682620
455 1 1 0.0000 2.220250 2.465310 1.816520
456 1 1 0.0000 2.297980 2.923480 2.643050
457 1 1 0.0000 0.019660 0.808749 2.915670
458 1 1 0.0000 2.055210 1.294880 0.409549
459 1 1 0.0000 1.729100 1.249440 0.697773
460 1 1 0.0000 2.237340 2.615090 0.864416
461 1 1 0.0000 2.717410 1.844720 0.290008
462 1 1 0.0000 1.964170 2.899900 1.750270
463 1 1 0.0000 1.285890 1.238970 0.454884
464 1 1 0.0000 3.018380 2.392960 0.772095
465 1 1 0.0000 1.765460 1.417950 2.830030
466 1 1 0.0000 0.784822 2.526940 2.433350
467 1 1 0.0000 0.461449 1.854790 2.420140
468 1 1 0.0000 2.766690 2.879200 0.278254
469 1 1 0.0000 1.372200 1.389390 2.610310
470 1 1 0.0000 0.429084 0.037950 1.441720
471 1 1 0.0000 1.325670 2.877750 1.477910
472 1 1 0.0000 2.603090 2.197340 0.064800
473 1 1 0.0000 2.716790 2.614460 0.130670
474 1 1 0.0000 1.789120 1.616320 3.080450
475 1 1 0.0000 0.766655 1.687250 2.291700
476 1 1 0.0000 2.753150 0.629465 0.358024
477 1 1 0.0000 0.883170 0.526381 2.880230
478 1 1 0.0000 2.327350 2.481000 2.289900
479 1 1 0.0000 1.123930 0.492331 2.365380
480 1 1 0.0000 1.432810 1.919370 2.090410
481 1 1 0.0000 2.406010 0.351369 2.105480
482 1 1 0.0000 0.854059 0.435198 0.652842
483 1 1 0.0000 0.585844 0.385988 3.010630
484 1 1 0.0000 0.856422 1.358200 0.594349
485 1 1 0.0000 1.859160 0.945387 2.332220
486 1 1 0.0000 2.078900 2.999070 0.968155
487 1 1 0.0000 1.352010 1.479960 0.324835
488 1 1 0.0000 0.062410 1.421070 2.891390
489 1 1 0.0000 2.200330 0.753262 0.747267
490 1 1 0.0000 0.056460 1.517660 2.248530
491 1 1 0.0000 0.401395 2.477980 0.346603
492 1 1 0.0000 0.859253 0.008340 2.317980
493 1 1 0.0000 2.367370 1.960460 0.324288
494 1 1 0.0000 0.974390 0.072380 1.620160
495 1 1 0.0000 0.019350 1.048970 1.458510
496 1 1 0.0000 1.552030 1.028580 0.137300
497 1 1 0.0000 0.629095 1.966070 1.488960
498 1 1 0.0000 1.037500 1.752710 1.731770
499 1 1 0.0000 2.973160 0.362203 0.496905
500 1 1 0.0000 2.816260 0.028110 1.553660
501 1 1 0.0000 2.557770 0.637211 2.255760
502 1 1 0.0000 0.512338 1.474250 0.257443
503 1 1 0.0000 2.443220 0.882035 2.793740
504 1 1 0.0000 2.232710 1.109340 2.699230
505 1 1 0.0000 1.752260 1.519880 0.276573
506 1 1 0.0000 1.850470 0.202847 2.205400
507 1 1 0.0000 1.853260 1.775590 0.583263
508 1 1 0.0000 2.628990 2.094320 0.322619
509 1 1 0.0000 0.962384 2.156880 0.476964
510 1 1 0.0000 1.648810 0.024430 2.824300
511 1 1 0.0000 1.717410 0.636597 1.452050
512 1 1 0.0000 0.450201 1.224690 0.579124
513 1 1 0.0000 1.592170 1.562940 2.656220
514 1 1 0.0000 3.069470 1.786040 2.602790
515 1 1 0.0000 0.166633 2.787380 0.158844
516 1 1 0.0000 1.254460 0.246470 0.325787
517 1 1 0.0000 1.598340 2.874780 2.698470
518 1 1 0.0000 2.172170 0.225840 2.257160
519 1 1 0.0000 2.219410 1.087050 0.770937
520 1 1 0.0000 1.652850 1.835590 2.969660
521 1 1 0.0000 0.989048 1.344450 2.151600
522 1 1 0.0000 2.385510 0.996371 1.827390
523 1 1 0.0000 0.736378 3.057660 1.790390
524 1 1 0.0000 2.714190 2.106250 1.479590
525 1 1 0.0000 0.360445 1.324110 1.912810
526 1 1 0.0000 0.996774 0.181932 1.868140
527 1 1 0.0000 1.756630 3.048690 1.658480
528 1 1 0.0000 0.591152 1.479230 1.006670
529 1 1 0.0000 0.101890 2.965370 1.487290
530 1 1 0.0000 2.875320 1.372300 2.837580
531 1 1 0.0000 1.296010 0.662012 0.904458
532 1 1 0.0000 0.488472 0.416903 1.543910
533 1 1 0.0000 0.765821 1.755120 2.043330
534 1 1 0.0000 0.126000 0.010530 0.979556
535 1 1 0.0000 1.303720 0.795957 1.287110
536 1 1 0.0000 2.098360 1.040120 0.514557
537 1 1 0.0000 1.873410 1.713580 1.392830
538 1 1 0.0000 2.769210 2.522800 0.610458
539 1 1 0.0000 2.819910 2.700120 2.216160
540 1 1 0.0000 0.876786 2.456210 1.357800
541 1 1 0.0000 2.202900 0.773238 2.676760
542 1 1 0.0000 2.598810 1.344100 0.893507
543 1 1 0.0000 1.750410 1.212730 2.652050
544 1 1 0.0000 2.474420 2.610330 1.501240
545 1 1 0.0000 1.822280 0.947498 0.315924
546 1 1 0.0000 2.800640 0.908503 0.501311
547 1 1 0.0000 2.687260 2.735750 1.383770
548 1 1 0.0000 1.173730 0.870740 2.146070
549 1 1 0.0000 1.857340 1.266750 1.928870
550 1 1 0.0000 1.438620 1.737780 0.400961
551 1 1 0.0000 2.410050 0.914707 0.872273
552 1 1 0.0000 1.251520 2.186800 0.519004
553 1 1 0.0000 2.047160 1.449420 2.204920
554 1 1 0.0000 0.577869 2.552390 1.027160
555 1 1 0.0000 0.636931 2.798490 2.797300
556 1 1 0.0000 2.278710 1.611800 2.863400
557 1 1 0.0000 2.697950 2.061580 2.751610
558 1 1 0.0000 2.850180 2.409300 2.267290
559 1 1 0.0000 2.316490 2.486780 1.263600
560 1 1 0.0000 1.102840 2.085630 2.173140
561 1 1 0.0000 2.378630 2.152640 1.289520
562 1 1 0.0000 3.062260 2.145090 0.658501
563 1 1 0.0000 2.897740 2.771920 0.808223
564 1 1 0.0000 1.753930 1.370160 1.407820
565 1 1 0.0000 0.421761 2.877090 1.550950
566 1 1 0.0000 2.388710 0.963916 1.444220
567 1 1 0.0000 1.659670 1.804760 2.029310
568 1 1 0.0000 2.322850 2.789490 2.876300
569 1 1 0.0000 0.009900 0.130040 1.355940
570 1 1 0.0000 0.167746 0.507314 2.477340
571 1 1 0.0000 2.572940 0.751765 1.455670
572 1 1 0.0000 2.967540 2.149460 2.703310
573 1 1 0.0000 2.839120 0.224332 1.368620
574 1 1 0.0000 0.416688 3.035550 2.095650
575 1 1 0.0000 1.718920 2.953290 0.896896
576 1 1 0.0000 3.018130 0.223656 0.740235
577 1 1 0.0000 1.311840 2.856340 2.465680
578 1 1 0.0000 1.130370 3.054610 2.741570
579 1 1 0.0000 0.756642 2.692920 0.491196
580 1 1 0.0000 0.091250 1.504300 0.663635
581 1 1 0.0000 2.054030 2.318160 2.912870
582 1 1 0.0000 1.544520 1.558150 2.095300
583 1 1 0.0000 1.385200 1.220270 0.703130
584 1 1 0.0000 0.925146 1.986720 2.644730
585 1 1 0.0000 1.117300 1.084340 1.366630
586 1 1 0.0000 0.379657 1.710920 2.717980
587 1 1 0.0000 2.102010 2.588060 2.372610
588 1 1 0.0000 0.494794 1.275130 2.675660
589 1 1 0.0000 0.826522 2.506950 2.159320
590 1 1 0.0000 1.770910 1.470660 0.543128
591 1 1 0.0000 2.803960 1.617220 1.866300
592 1 1 0.0000 0.980958 2.699210 1.539890
593 1 1 0.0000 1.987010 1.131050 0.090830
594 1 1 0.0000 2.964380 0.359339 2.317170
595 1 1 0.0000 1.916130 3.081350 1.986140
596 1 1 0.0000 1.842810 2.430970 2.356050
597 1 1 0.0000 2.246780 0.544632 2.796290
598 1 1 0.0000 2.010700 0.300590 2.873390
599 1 1 0.0000 0.036080 1.957490 2.818550
600 1 1 0.0000 2.695410 0.571945 2.904270
601 1 1 0.0000 1.595910 1.793060 0.655936
602 1 1 0.0000 2.119010 0.441078 0.584650
603 1 1 0.0000 0.723477 0.356678 1.406220
604 1 1 0.0000 2.893420 2.678010 0.417127
605 1 1 0.0000 1.069830 2.286440 2.592980
606 1 1 0.0000 1.079990 0.162377 1.379980
607 1 1 0.0000 0.664331 1.954190 0.636885
608 1 1 0.0000 2.869270 2.443160 1.010680
609 1 1 0.0000 0.718745 2.309720 2.572390
610 1 1 0.0000 1.325270 1.618370 1.937140
611 1 1 0.0000 2.074120 1.832140 2.633620
612 1 1 0.0000 1.888180 1.532910 1.984200
613 1 1 0.0000 0.777837 0.067010 2.038730
614 1 1 0.0000 2.230870 2.156880 0.651116
615 1 1 0.0000 2.778060 0.788085 3.040520
616 1 1 0.0000 1.449780 2.336940 1.785800
617 1 1 0.0000 2.424460 1.118670 0.374755
618 1 1 0.0000 0.842642 2.401500 3.060640
619 1 1 0.0000 0.976187 0.466954 1.458630
620 1 1 0.0000 2.129760 1.686500 1.158910
621 1 1 0.0000 1.252830 1.071680 1.708700
622 1 1 0.0000 2.800320 1.821500 2.740520
623 1 1 0.0000 0.627027 1.061490 2.800820
624 1 1 0.0000 2.898150 1.364550 0.456596
625 1 1 0.0000 2.453280 0.494096 1.266240
626 1 1 0.0000 1.222650 0.886854 0.159889
627 1 1 0.0000 1.609540 2.645200 0.919571
628 1 1 0.0000 0.675208 0.701789 0.255624
629 1 1 0.0000 1.694380 1.599080 1.793290
630 1 1 0.0000 1.600000 2.962530 1.243790
631 1 1 0.0000 2.436680 1.503480 1.872700
632 1 1 0.0000 1.278610 1.116820 2.992310
633 1 1 0.0000 0.525163 1.576360 2.362500
634 1 1 0.0000 2.996820 2.578100 2.463280
635 1 1 0.0000 0.628280 1.333320 1.464360
636 1 1 0.0000 1.943170 0.500456 1.814570
637 1 1 0.0000 2.989120 2.782680 2.645840
638 1 1 0.0000 2.503310 0.721333 3.087820
639 1 1 0.0000 1.053990 0.826315 2.406570
640 1 1 0.0000 0.632594 2.304400 0.211584
641 1 1 0.0000 0.709167 1.191760 0.889942
642 1 1 0.0000 2.138250 0.119070 0.610512
643 1 1 0.0000 2.129300 0.122080 0.242785
644 1 1 0.0000 0.361818 0.944788 1.576810
645 1 1 0.0000 2.551070 2.111430 0.611173
646 1 1 0.0000 3.055370 0.194080 1.083330
647 1 1 0.0000 2.207970 2.509310 1.521460
648 1 1 0.0000 1.123750 0.941792 2.850680
649 1 1 0.0000 0.118760 1.005270 1.724990
650 1 1 0.0000 2.537610 1.215310 1.484960
651 1 1 0.0000 2.080430 0.064960 1.614760
652 1 1 0.0000 1.399280 3.047270 1.731970
653 1 1 0.0000 1.529980 2.699700 2.448210
654 1 1 0.0000 0.896192 0.929009 3.021740
655 1 1 0.0000 0.319080 0.159059 0.091350
656 1 1 0.0000 1.141910 2.743310 2.763600
657 1 1 0.0000 0.884533 2.960510 1.428750
658 1 1 0.0000 0.039330 2.654790 0.689835
659 1 1 0.0000 2.304630 0.138210 1.789840
660 1 1 0.0000 0.693106 1.727610 0.205795
661 1 1 0.0000 0.361852 2.282860 1.863570
662 1 1 0.0000 1.510370 0.267404 0.979376
663 1 1 0.0000 1.386630 0.057610 0.485765
664 1 1 0.0000 2.178100 1.918460 1.464180
665 1 1 0.0000 2.235720 0.572616 0.963195
666 1 1 0.0000 2.818450 3.079140 2.359990
667 1 1 0.0000 2.410720 0.246704 1.550550
668 1 1 0.0000 1.208340 1.161470 2.686160
669 1 1 0.0000 1.289520 2.396660 1.016730
670 1 1 0.0000 0.947065 2.687650 2.973710
671 1 1 0.0000 2.287530 1.358600 0.715305
672 1 1 0.0000 2.340630 0.452883 1.859340
673 1 1 0.0000 2.145520 2.061130 1.198850
674 1 1 0.0000 0.892714 2.427970 0.590075
675 1 1 0.0000 0.426367 1.728210 0.170798
676 1 1 0.0000 1.350160 0.501197 1.251170
677 1 1 0.0000 2.430150 1.972030 2.937500
678 1 1 0.0000 2.687470 1.119530 0.729575
679 1 1 0.0000 2.449110 1.376050 1.282550
680 1 1 0.0000 1.916230 2.461820 3.080920
681 1 1 0.0000 0.753019 1.253630 2.284630
682 1 1 0.0000 0.827999 0.532699 2.376000
683 1 1 0.0000 1.585160 1.011840 0.982452
684 1 1 0.0000 1.379000 2.832870 2.882830
685 1 1 0.0000 2.948430 1.433290 0.860754
686 1 1 0.0000 0.884171 0.712201 2.607460
687 1 1 0.0000 0.286920 1.993960 1.845410
688 1 1 0.0000 0.037040 0.642474 0.059920
689 1 1 0.0000 1.083660 0.237200 2.202300
690 1 1 0.0000 1.121790 3.011700 2.367570
691 1 1 0.0000 2.419510 0.792485 2.494530
692 1 1 0.0000 1.268370 2.696730 1.288040
693 1 1 0.0000 1.862960 0.991680 0.705842
694 1 1 0.0000 0.285969 0.253409 0.584924
695 1 1 0.0000 1.125190 2.394080 0.076060
696 1 1 0.0000 0.519908 1.158620 0.213946
697 1 1 0.0000 2.615710 0.836455 1.744020
698 1 1 0.0000 0.770682 0.573520 0.031330
699 1 1 0.0000 1.333040 0.447053 2.181600
700 1 1 0.0000 0.472310 1.169810 1.040290
701 1 1 0.0000 1.752290 1.548130 0.865454
702 1 1 0.0000 2.500950 2.046090 2.266510
703 1 1 0.0000 1.080480 0.523967 2.029750
704 1 1 0.0000 1.061580 2.899040 1.705780
705 1 1 0.0000 0.745235 1.413860 1.229090
706 1 1 0.0000 2.962880 0.098830 0.174504
707 1 1 0.0000 2.366380 1.425720 1.566340
708 1 1 0.0000 1.590860 2.626080 3.037950
709 1 1 0.0000 0.685327 1.473960 0.045830
710 1 1 0.0000 2.748650 3.058880 0.052270
711 1 1 0.0000 1.054760 1.266160 1.721070
712 1 1 0.0000 3.033470 3.055860 2.563930