LAMMPS data file for testing

4 atoms
2 bonds
1 angles

1 atom types
1 bond types
1 angle types

0 10.0 xlo xhi
0 10.0 ylo yhi
0 10.0 zlo zhi

Masses

1 1.0

Atoms

1 1 1 1.0 2.0 3.0
2 1 1 2.0 3.0 4.0
3 1 1 3.0 4.0 5.0
4 1 1 4.0 5.0 6.0

Bonds

1 1 1 2
2 1 2 3

Angles

1 1 1 2 3
